#(C) 2012 by Fachinformationszentrum Karlsruhe. All rights reserved.
data_180559-ICSD
_database_code_ICSD 180559
_audit_creation_date 2011-08-01
_chemical_name_systematic 'Dipotassium peroxide'
_chemical_formula_structural 'K2 O2'
_chemical_formula_sum 'K2 O2'
_exptl_crystal_density_diffrn 2.43
_publ_section_title
'Structure, mechanical stability and chemical bond in alkali metal oxides'
loop_
_citation_id
_citation_journal_full
_citation_year
_citation_journal_volume
_citation_page_first
_citation_page_last
_citation_journal_id_ASTM
primary 'Journal of Structural Chemistry (USSR) (= Zhurnal Strukturnoi Khimii)'
2010 51 1005 1013 JSTCAM
loop_
_publ_author_name
'Zhuravlev, Yu.N.'
'Obolonskaya, O.S.'
_cell_length_a 6.762
_cell_length_b 6.989
_cell_length_c 6.361
_cell_angle_alpha 90.
_cell_angle_beta 90.
_cell_angle_gamma 90.
_cell_volume 300.62
_cell_formula_units_Z 4
_symmetry_space_group_name_H-M 'C m c e'
_symmetry_Int_Tables_number 64
loop_
_symmetry_equiv_pos_site_id
_symmetry_equiv_pos_as_xyz
1 '-x, -y+1/2, z+1/2'
2 '-x, y+1/2, -z+1/2'
3 '-x, y, z'
4 '-x, -y, -z'
5 'x, y+1/2, -z+1/2'
6 'x, -y+1/2, z+1/2'
7 'x, -y, -z'
8 'x, y, z'
9 '-x+1/2, -y, z+1/2'
10 '-x+1/2, y, -z+1/2'
11 '-x+1/2, y+1/2, z'
12 '-x+1/2, -y+1/2, -z'
13 'x+1/2, y, -z+1/2'
14 'x+1/2, -y, z+1/2'
15 'x+1/2, -y+1/2, -z'
16 'x+1/2, y+1/2, z'
loop_
_atom_type_symbol
_atom_type_oxidation_number
K1+ 1
O1- -1
loop_
_atom_site_label
_atom_site_type_symbol
_atom_site_symmetry_multiplicity
_atom_site_Wyckoff_symbol
_atom_site_fract_x
_atom_site_fract_y
_atom_site_fract_z
_atom_site_B_iso_or_equiv
_atom_site_occupancy
_atom_site_attached_hydrogens
K1 K1+ 8 e 0.25 0.1554 0.25 . 1. 0
O1 O1- 8 f 0 0.0896 0.9275 . 1. 0
#End of data_180559-ICSD